<?xml version="1.0" ?> 
<!-- 
# vtk DataFile Version 3.0
#This file was generated by the deal.II library on 2015/9/7 at 18: 2:34
-->
<VTKFile type="UnstructuredGrid" version="0.1" compressor="vtkZLibDataCompressor" byte_order="LittleEndian">
<UnstructuredGrid>
<Piece NumberOfPoints="0" NumberOfCells="0" >
<Cells>
<DataArray type="UInt8" Name="types"></DataArray>
</Cells>
  <PointData Scalars="scalars">
    <DataArray type="Float64" Name="velocity" NumberOfComponents="3"></DataArray>
    <DataArray type="Float64" Name="p"></DataArray>
    <DataArray type="Float64" Name="T"></DataArray>
  </PointData>
</Piece>
 </UnstructuredGrid>
</VTKFile>
